<?xml version="1.0" encoding="UTF-8"?>

<!-- generated on 2025-01-12 20:05:19 by Eclipse SUMO GUI Version 1.21.0
<sumoConfiguration xmlns:xsi="http://www.w3.org/2001/XMLSchema-instance" xsi:noNamespaceSchemaLocation="http://sumo.dlr.de/xsd/sumoConfiguration.xsd">

    <input>
        <net-file value=".\chatt.net.xml"/>
        <route-files value=".\chattCavMpr.rou.xml"/>
        <additional-files value=".\updated_signal.xml,.\Edge.add.xml"/>
    </input>

    <output>
        <netstate-dump value="chatt.xml"/>
        <netstate-dump.precision value="10"/>
        <fcd-output value=".\fcd.xml"/>
        <edgedata-output value=".\EdgeData.xml"/>
    </output>

    <time>
        <begin value="28800"/>
        <end value="33000"/>
        <step-length value="1"/>
    </time>

    <processing>
        <lateral-resolution value="0.8"/>
    </processing>

    <report>
        <no-warnings value="true"/>
        <no-step-log value="true"/>
    </report>

    <traci_server>
        <remote-port value="1337"/>
        <num-clients value="2"/>
    </traci_server>

    <random_number>
        <seed value="101"/>
    </random_number>

    <gui_only>
        <start value="t"/>
    </gui_only>

</sumoConfiguration>
